# vtk DataFile Version 3.0
vtk output
ASCII
DATASET UNSTRUCTURED_GRID
POINTS 4 float
0 0 0 1 0 0 0 1 0 
0 0 1 
CELLS 1 5
4 0 1 2 3 

CELL_TYPES 1
10

CELL_DATA 1
SCALARS cell-handles float
LOOKUP_TABLE default
0 
POINT_DATA 4
SCALARS vertex-handles float
LOOKUP_TABLE default
0 1 2 3 
